# vtk DataFile Version 2.0
s01o_cube, Created by Gmsh 4.9.0-git-8578dea57 
ASCII
DATASET UNSTRUCTURED_GRID
POINTS 263 double
-0.9559 0.9350 1.3256
-0.0981 0.7647 1.8105
-0.4428 1.2743 0.5371
0.4149 1.1040 1.0220
-0.4126 0.3492 0.1587
0.4451 0.1788 0.6436
-0.9257 0.0099 0.9471
-0.0679 -0.1604 1.4320
-0.7843 0.9010 1.4225
-0.6128 0.8669 1.5195
-0.4412 0.8328 1.6165
-0.2696 0.7988 1.7135
-0.2713 1.2402 0.6341
-0.0997 1.2062 0.7311
0.0717 1.1721 0.8280
0.2433 1.1380 0.9250
-0.8533 1.0029 1.1679
-0.7507 1.0707 1.0102
-0.6481 1.1386 0.8525
-0.5455 1.2064 0.6948
0.0044 0.8325 1.6528
0.1070 0.9004 1.4951
0.2097 0.9682 1.3374
0.3123 1.0361 1.1797
-0.2411 0.3151 0.2557
-0.0695 0.2810 0.3526
0.1020 0.2470 0.4496
0.2735 0.2129 0.5466
-0.4368 1.0893 0.4614
-0.4308 0.9042 0.3857
-0.4247 0.7192 0.3100
-0.4187 0.5342 0.2344
0.4209 0.9189 0.9463
0.4270 0.7339 0.8706
0.4330 0.5489 0.7949
0.4390 0.3638 0.7193
-0.7541 -0.0241 1.0441
-0.5826 -0.0581 1.1411
-0.4110 -0.0922 1.2381
-0.2394 -0.1263 1.3351
-0.5153 0.2813 0.3164
-0.6179 0.2134 0.4741
-0.7205 0.1456 0.6318
-0.8231 0.0777 0.7894
0.3425 0.1110 0.8013
0.2399 0.0431 0.9590
0.1372 -0.0246 1.1166
0.0346 -0.0925 1.2743
-0.9317 0.1949 1.0228
-0.9378 0.3799 1.0985
-0.9438 0.5650 1.1742
-0.9499 0.7500 1.2499
-0.0739 0.0246 1.5077
-0.0800 0.2096 1.5834
-0.0860 0.3946 1.6591
-0.0920 0.5797 1.7348
-0.2705 1.0195 1.1738
0.0207 1.0554 1.1093
-0.3437 1.1278 0.9032
-0.5618 0.9836 1.2383
-0.1972 0.9112 1.4444
-0.5191 1.0734 1.0221
-0.4312 0.9208 1.4022
-0.0218 0.9656 1.3255
-0.1097 1.1182 0.9453
0.1909 1.0764 1.0716
-0.1539 0.8472 1.6042
-0.3861 1.1905 0.7465
-0.7319 0.9626 1.2760
-0.1218 1.0207 1.1827
-0.2787 0.9631 1.3109
-0.4186 1.0185 1.1644
-0.2743 1.0716 1.0460
-0.2986 0.8622 1.5562
-0.2421 1.1766 0.7920
0.0834 1.1120 0.9759
-0.4885 1.1473 0.8438
-0.6834 1.0187 1.1429
-0.6244 0.9270 1.3717
-0.0522 0.8914 1.5044
0.1423 1.0203 1.2047
0.0087 0.7243 0.5944
0.1806 0.5024 0.6107
0.1769 0.8870 0.7738
-0.1584 0.5725 0.4202
-0.1875 0.9593 0.5677
0.0135 0.4322 0.4717
-0.0077 0.9996 0.7020
0.2560 0.6838 0.7378
-0.2511 0.7873 0.4523
-0.2744 0.4753 0.3029
-0.2945 1.0913 0.5549
0.2808 0.9817 0.8822
0.2967 0.3619 0.6258
0.1145 0.6583 0.6347
-0.1048 0.7004 0.5102
-0.0785 0.8332 0.5844
-0.1642 1.0953 0.6414
-0.1435 0.4177 0.3633
0.1732 0.3513 0.5409
0.1444 1.0341 0.8159
-0.3201 0.9663 0.4844
0.3114 0.8381 0.8403
-0.3055 0.6177 0.3440
0.3211 0.4922 0.6977
0.0763 0.8065 0.6737
0.0137 0.5948 0.5419
-0.2403 0.0944 0.7954
-0.3135 0.2026 0.5248
0.0510 0.1302 0.7308
-0.1670 -0.0138 1.0659
-0.5316 0.0585 0.8599
-0.3833 -0.0078 1.0338
-0.0972 0.1966 0.5569
-0.4995 0.1413 0.6599
0.0189 0.0474 0.9308
-0.3585 0.2691 0.3586
-0.7002 0.0377 0.8972
0.2259 0.1518 0.6921
-0.1246 -0.0765 1.2226
-0.1130 0.1272 0.7253
-0.3676 0.0615 0.8654
-0.1785 0.0494 0.9103
-0.3020 0.1393 0.6804
-0.5904 0.0012 0.9952
-0.4609 0.2216 0.4667
-0.2160 0.2529 0.4097
-0.2651 -0.0633 1.1791
0.1756 0.0967 0.8228
-0.0201 -0.0320 1.1221
-0.6550 0.0921 0.7676
0.1110 0.1877 0.5952
-0.5094 0.3924 1.3827
-0.7006 0.6201 1.3562
-0.3327 0.1742 1.4037
-0.3421 0.5393 1.5547
-0.6878 0.2269 1.1953
-0.5130 0.1176 1.2620
-0.5208 0.6603 1.4905
-0.2396 0.3362 1.5340
-0.7684 0.4452 1.2368
-0.7896 0.1340 1.0891
-0.2364 0.6386 1.6662
-0.8121 0.7576 1.3428
-0.2162 0.0226 1.4142
-0.4670 0.5028 1.4577
-0.4639 0.2623 1.3563
-0.6024 0.3344 1.2972
-0.3425 0.0191 1.3306
-0.6773 0.7561 1.4299
-0.6654 0.0792 1.1463
-0.3620 0.6939 1.6083
-0.8230 0.2762 1.1285
-0.1913 0.1567 1.4882
-0.8309 0.6160 1.2696
-0.1992 0.4977 1.6298
-0.5948 0.4925 1.3702
-0.3924 0.3679 1.4482
-0.6843 0.6421 0.7421
-0.7869 0.3734 0.8293
-0.7997 0.7666 0.9901
-0.5688 0.5176 0.4942
-0.5817 0.9108 0.6550
-0.6806 0.3647 0.6382
-0.6879 0.9195 0.8460
-0.5321 0.7330 0.5048
-0.8365 0.5512 0.9795
-0.5020 0.4455 0.3506
-0.8450 0.2211 0.8786
-0.8690 0.8413 1.1390
-0.5223 1.0663 0.6045
-0.6446 0.5439 0.6374
-0.6266 0.7516 0.6786
-0.7272 0.7246 0.8471
-0.7420 0.5326 0.8058
-0.7696 0.2383 0.7512
-0.5769 0.3645 0.4547
-0.5007 0.9407 0.5223
-0.8798 0.6948 1.1065
-0.7921 0.9202 1.0306
-0.8676 0.3441 0.9617
-0.4893 0.5899 0.3788
-0.5971 1.0483 0.7306
0.1735 0.4718 1.2270
0.0580 0.5963 1.4750
0.2761 0.7404 1.1399
0.2889 0.3473 0.9791
0.0708 0.2031 1.3141
0.1592 0.7422 1.3472
0.3250 0.5818 0.9975
0.0219 0.3618 1.4565
0.1877 0.2014 1.1068
-0.0112 0.6710 1.6239
0.3557 0.2752 0.8355
0.3391 0.9054 1.0864
0.0114 0.0475 1.3646
0.2431 0.4520 1.0968
0.2049 0.6168 1.2224
0.1039 0.4909 1.3568
0.1389 0.3389 1.2414
0.0884 0.0669 1.2353
0.2593 0.8785 1.2181
0.3683 0.4234 0.8652
0.0635 0.7485 1.5188
0.3576 0.7761 1.0081
0.2829 0.1956 0.9363
-0.0218 0.5207 1.5899
-0.0099 0.1693 1.4453
-0.0149 0.1992 1.1371
-0.3883 0.2298 1.1352
-0.4880 0.2557 0.9409
0.1382 0.8789 0.9713
-0.1473 0.3927 1.3248
-0.2404 0.1310 1.1740
-0.2430 0.9840 0.7710
-0.4818 0.5558 0.7137
-0.4159 0.8246 0.7628
-0.3314 0.6570 0.6754
-0.0827 0.3852 0.6642
-0.3689 0.4628 0.5901
-0.5144 0.4299 0.9414
-0.4790 0.5837 0.9814
-0.5251 0.8512 0.9818
-0.6669 0.7528 1.2093
-0.5059 0.4447 1.1507
-0.6559 0.5004 1.0538
-0.6701 0.2649 0.9497
-0.1149 0.9055 0.8720
-0.1876 0.8144 1.0828
-0.1960 0.7083 0.9330
-0.3694 0.8065 1.0513
-0.3282 0.9152 0.9167
-0.5147 0.6366 1.1672
-0.3224 0.6269 1.1261
-0.1344 0.2426 0.8594
-0.3207 0.2341 0.9021
0.0460 0.7286 1.0742
-0.2823 0.5487 1.3286
-0.1600 0.6798 1.4209
-0.4250 0.6361 0.8395
0.0072 0.2531 0.9647
-0.2322 0.3767 0.7738
-0.2894 0.3894 1.2183
0.1349 0.5766 0.8882
-0.0029 0.7555 0.9172
-0.4354 0.3724 0.7904
0.0165 0.4506 1.0924
-0.1243 0.5452 0.6373
-0.0482 0.5509 0.8403
-0.1735 0.7764 0.7337
-0.1415 0.6097 1.2248
0.1070 0.4063 0.8224
-0.0877 0.4139 0.9337
-0.3443 0.4019 1.0049
-0.6243 0.6931 1.0462
-0.4485 0.5456 1.2732
-0.2929 0.7720 1.3008
-0.3198 0.5487 0.9379
-0.2581 0.5260 0.7682
-0.4303 0.9977 0.7769
-0.1188 0.1382 1.2935
-0.1886 0.2520 1.0788
-0.1618 0.5532 1.0574

CELLS 1366 6274
1 0
1 1
1 2
1 3
1 4
1 5
1 6
1 7
2 0 8
2 8 9
2 9 10
2 10 11
2 11 1
2 2 12
2 12 13
2 13 14
2 14 15
2 15 3
2 0 16
2 16 17
2 17 18
2 18 19
2 19 2
2 1 20
2 20 21
2 21 22
2 22 23
2 23 3
2 4 24
2 24 25
2 25 26
2 26 27
2 27 5
2 2 28
2 28 29
2 29 30
2 30 31
2 31 4
2 3 32
2 32 33
2 33 34
2 34 35
2 35 5
2 6 36
2 36 37
2 37 38
2 38 39
2 39 7
2 4 40
2 40 41
2 41 42
2 42 43
2 43 6
2 5 44
2 44 45
2 45 46
2 46 47
2 47 7
2 6 48
2 48 49
2 49 50
2 50 51
2 51 0
2 7 52
2 52 53
2 53 54
2 54 55
2 55 1
3 63 70 60
3 62 71 59
3 69 70 63
3 61 72 58
3 70 71 62
3 64 72 69
3 64 69 57
3 71 72 61
3 13 64 14
3 10 62 9
3 17 61 18
3 22 63 21
3 3 65 23
3 15 65 3
3 8 68 0
3 2 67 12
3 19 67 2
3 0 68 16
3 20 66 1
3 1 66 11
3 13 74 64
3 61 76 18
3 64 74 58
3 62 73 60
3 58 76 61
3 61 77 59
3 63 80 57
3 62 78 9
3 64 75 14
3 10 73 62
3 17 77 61
3 22 80 63
3 59 78 62
3 60 79 63
3 63 79 21
3 57 75 64
3 69 72 56
3 56 70 69
3 60 70 62
3 58 72 64
3 59 71 61
3 57 69 63
3 56 71 70
3 56 72 71
3 11 73 10
3 14 75 15
3 16 77 17
3 9 78 8
3 23 80 22
3 12 74 13
3 18 76 19
3 21 79 20
3 15 75 65
3 20 79 66
3 8 78 68
3 19 76 67
3 66 73 11
3 67 74 12
3 65 80 23
3 68 77 16
3 58 74 67
3 67 76 58
3 59 77 68
3 57 80 65
3 65 75 57
3 68 78 59
3 66 79 60
3 60 73 66
3 85 96 89
3 89 96 95
3 25 86 26
3 14 87 13
3 29 89 30
3 34 88 33
3 88 105 83
3 84 106 86
3 94 105 88
3 95 106 84
3 3 92 15
3 32 92 3
3 2 91 28
3 4 90 24
3 31 90 4
3 12 91 2
3 27 93 5
3 5 93 35
3 86 106 82
3 86 99 26
3 82 99 86
3 88 104 82
3 87 100 83
3 86 98 84
3 85 97 87
3 25 98 86
3 89 101 85
3 87 97 13
3 89 103 30
3 83 102 88
3 84 103 89
3 29 101 89
3 14 100 87
3 88 102 33
3 34 104 88
3 83 105 87
3 82 94 88
3 87 96 85
3 89 95 84
3 95 96 81
3 15 100 14
3 24 98 25
3 28 101 29
3 30 103 31
3 33 102 32
3 13 97 12
3 26 99 27
3 35 104 34
3 81 105 94
3 82 106 94
3 87 105 96
3 81 106 95
3 92 100 15
3 32 102 92
3 91 101 28
3 90 98 24
3 31 103 90
3 27 99 93
3 93 104 35
3 12 97 91
3 92 102 83
3 82 104 93
3 84 98 90
3 93 99 82
3 83 100 92
3 90 103 84
3 91 97 85
3 85 101 91
3 96 105 81
3 94 106 81
3 121 122 112
3 112 122 110
3 115 120 109
3 113 123 108
3 120 123 113
3 114 121 111
3 114 123 121
3 115 122 120
3 26 113 25
3 37 112 38
3 46 115 45
3 41 114 42
3 6 117 36
3 24 116 4
3 4 116 40
3 43 117 6
3 44 118 5
3 39 119 7
3 7 119 47
3 5 118 27
3 115 129 110
3 112 124 111
3 113 131 109
3 110 127 112
3 41 125 114
3 114 130 42
3 37 124 112
3 111 130 114
3 26 131 113
3 46 129 115
3 114 125 108
3 108 126 113
3 109 128 115
3 113 126 25
3 112 127 38
3 115 128 45
3 107 122 121
3 109 120 113
3 111 121 112
3 110 122 115
3 107 123 120
3 120 122 107
3 108 123 114
3 121 123 107
3 38 127 39
3 42 130 43
3 27 131 26
3 40 125 41
3 25 126 24
3 36 124 37
3 47 129 46
3 45 128 44
3 117 124 36
3 44 128 118
3 118 131 27
3 24 126 116
3 43 130 117
3 116 125 40
3 39 127 119
3 119 129 47
3 119 127 110
3 111 124 117
3 110 129 119
3 108 125 116
3 116 126 108
3 109 131 118
3 118 128 109
3 117 130 111
3 146 147 137
3 137 147 136
3 38 137 37
3 9 138 10
3 49 140 50
3 54 139 53
3 140 156 133
3 139 157 134
3 147 156 140
3 134 157 146
3 1 142 55
3 11 142 1
3 36 141 6
3 0 143 8
3 6 141 48
3 51 143 0
3 7 144 39
3 52 144 7
3 135 157 139
3 137 150 37
3 138 149 133
3 135 151 138
3 38 148 137
3 137 148 134
3 138 151 10
3 9 149 138
3 139 153 53
3 139 155 135
3 140 152 136
3 49 152 140
3 136 150 137
3 140 154 50
3 133 154 140
3 134 153 139
3 54 155 139
3 133 156 138
3 132 147 146
3 134 146 137
3 138 145 135
3 136 147 140
3 37 150 36
3 39 148 38
3 10 151 11
3 53 153 52
3 48 152 49
3 50 154 51
3 55 155 54
3 8 149 9
3 132 156 147
3 145 157 135
3 138 156 145
3 146 157 132
3 11 151 142
3 144 148 39
3 52 153 144
3 142 155 55
3 143 149 8
3 36 150 141
3 141 152 48
3 51 154 143
3 133 149 143
3 134 148 144
3 143 154 133
3 144 153 134
3 142 151 135
3 136 152 141
3 135 155 142
3 141 150 136
3 145 156 132
3 132 157 145
3 159 174 163
3 163 174 171
3 171 172 165
3 160 173 166
3 161 171 165
3 172 173 164
3 162 172 164
3 173 174 166
3 50 166 49
3 30 165 29
3 42 163 41
3 18 164 17
3 2 170 19
3 40 167 4
3 0 169 51
3 4 167 31
3 28 170 2
3 16 169 0
3 6 168 43
3 48 168 6
3 163 175 159
3 162 177 165
3 42 175 163
3 50 178 166
[...]
CELL_DATA 1366
SCALARS CellEntityIds int 1
LOOKUP_TABLE default
1 2 3 4 5 6 7 8 1 1 1 1 1 2 2 2 2 2 3 3 3 3 3 4 4 4 4 4 5 5 5 5 5 6 6 6 6 6 7 7 7 7 7 8 8 8 8 8 9 9 9 9 9 10 10 10 10 10 11 11 11 11 11 12 12 12 12 12 1 1 1 1 1 1 1 1 1 1 1 1 1 1 1 1 1 1 1 1 1 1 1 1 1 1 1 1 1 1 1 1 1 1 1 1 1 1 1 1 1 1 1 1 1 1 1 1 1 1 1 1 1 1 1 1 1 1 1 1 1 1 1 1 1 1 1 1 2 2 2 2 2 2 2 2 2 2 2 2 2 2 2 2 2 2 2 2 2 2 2 2 2 2 2 2 2 2 2 2 2 2 2 2 2 2 2 2 2 2 2 2 2 2 2 2 2 2 2 2 2 2 2 2 2 2 2 2 2 2 2 2 2 2 2 2 2 2 3 3 3 3 3 3 3 3 3 3 3 3 3 3 3 3 3 3 3 3 3 3 3 3 3 3 3 3 3 3 3 3 3 3 3 3 3 3 3 3 3 3 3 3 3 3 3 3 3 3 3 3 3 3 3 3 3 3 3 3 3 3 3 3 3 3 3 3 4 4 4 4 4 4 4 4 4 4 4 4 4 4 4 4 4 4 4 4 4 4 4 4 4 4 4 4 4 4 4 4 4 4 4 4 4 4 4 4 4 4 4 4 4 4 4 4 4 4 4 4 4 4 4 4 4 4 4 4 4 4 4 4 4 4 4 4 4 4 5 5 5 5 5 5 5 5 5 5 5 5 5 5 5 5 5 5 5 5 5 5 5 5 5 5 5 5 5 5 5 5 5 5 5 5 5 5 5 5 5 5 5 5 5 5 5 5 5 5 5 5 5 5 5 5 5 5 5 5 5 5 5 5 5 5 5 5 6 6 6 6 6 6 6 6 6 6 6 6 6 6 6 6 6 6 6 6 6 6 6 6 6 6 6 6 6 6 6 6 6 6 6 6 6 6 6 6 6 6 6 6 6 6 6 6 6 6 6 6 6 6 6 6 6 6 6 6 6 6 6 6 6 6 6 6 1 1 1 1 1 1 1 1 1 1 1 1 1 1 1 1 1 1 1 1 1 1 1 1 1 1 1 1 1 1 1 1 1 1 1 1 1 1 1 1 1 1 1 1 1 1 1 1 1 1 1 1 1 1 1 1 1 1 1 1 1 1 1 1 1 1 1 1 1 1 1 1 1 1 1 1 1 1 1 1 1 1 1 1 1 1 1 1 1 1 1 1 1 1 1 1 1 1 1 1 1 1 1 1 1 1 1 1 1 1 1 1 1 1 1 1 1 1 1 1 1 1 1 1 1 1 1 1 1 1 1 1 1 1 1 1 1 1 1 1 1 1 1 1 1 1 1 1 1 1 1 1 1 1 1 1 1 1 1 1 1 1 1 1 1 1 1 1 1 1 1 1 1 1 1 1 1 1 1 1 1 1 1 1 1 1 1 1 1 1 1 1 1 1 1 1 1 1 1 1 1 1 1 1 1 1 1 1 1 1 1 1 1 1 1 1 1 1 1 1 1 1 1 1 1 1 1 1 1 1 1 1 1 1 1 1 1 1 1 1 1 1 1 1 1 1 1 1 1 1 1 1 1 1 1 1 1 1 1 1 1 1 1 1 1 1 1 1 1 1 1 1 1 1 1 1 1 1 1 1 1 1 1 1 1 1 1 1 1 1 1 1 1 1 1 1 1 1 1 1 1 1 1 1 1 1 1 1 1 1 1 1 1 1 1 1 1 1 1 1 1 1 1 1 1 1 1 1 1 1 1 1 1 1 1 1 1 1 1 1 1 1 1 1 1 1 1 1 1 1 1 1 1 1 1 1 1 1 1 1 1 1 1 1 1 1 1 1 1 1 1 1 1 1 1 1 1 1 1 1 1 1 1 1 1 1 1 1 1 1 1 1 1 1 1 1 1 1 1 1 1 1 1 1 1 1 1 1 1 1 1 1 1 1 1 1 1 1 1 1 1 1 1 1 1 1 1 1 1 1 1 1 1 1 1 1 1 1 1 1 1 1 1 1 1 1 1 1 1 1 1 1 1 1 1 1 1 1 1 1 1 1 1 1 1 1 1 1 1 1 1 1 1 1 1 1 1 1 1 1 1 1 1 1 1 1 1 1 1 1 1 1 1 1 1 1 1 1 1 1 1 1 1 1 1 1 1 1 1 1 1 1 1 1 1 1 1 1 1 1 1 1 1 1 1 1 1 1 1 1 1 1 1 1 1 1 1 1 1 1 1 1 1 1 1 1 1 1 1 1 1 1 1 1 1 1 1 1 1 1 1 1 1 1 1 1 1 1 1 1 1 1 1 1 1 1 1 1 1 1 1 1 1 1 1 1 1 1 1 1 1 1 1 1 1 1 1 1 1 1 1 1 1 1 1 1 1 1 1 1 1 1 1 1 1 1 1 1 1 1 1 1 1 1 1 1 1 1 1 1 1 1 1 1 1 1 1 1 1 1 1 1 1 1 1 1 1 1 1 1 1 1 1 1 1 1 1 1 1 1 1 1 1 1 1 1 1 1 1 1 1 1 1 1 1 1 1 1 1 1 1 1 1 1 1 1 1 1 1 1 1 1 1 1 1 1 1 1 1 1 1 1 1 1 1 1 1 1 1 1 1 1 1 1 1 1 1 1 1 1 1 1 1 1 1 1 1 1 1 1 1 1 1 1 1 1 1 1 1 1 1 1 1 1 1 1 1 1 1 1 1 1 1 1 1 1 1 1 1 1 1 1 1 1 1 1 1 1 1 1 1 1 1 1 1 1 1 1 1 1 1 1 1 1 1 1 1 1 1 1 1 1 1 1 1 1 1 1 1 1 1 1 1 1 1 1 1 1 1 1 1 1 1 1 1 1 1 1 1 1 1 1 1 1 1 1 1 1 1 1 1 1 1 1 1 1 1 1 1 1 1 1 1 1 1 1 1 1 1 1 1 1 1 1 1 1 1 1 1 1 1 1 1 1 1 1 1 1 1 1 1 1 1 1 1 1 1 1 1 1 1 1 1 1 1 1 

POINT_DATA 263
SCALARS boundary bit 1
LOOKUP_TABLE default
1 1 1 1 1 1 1 1 1 1 1 1 1 1 1 1 1 1 1 1 1 1 1 1 1 1 1 1 1 1 1 1 1 1 1 1 1 1 1 1 1 1 1 1 1 1 1 1 1 1 1 1 1 1 1 1 1 1 1 1 1 1 1 1 1 1 1 1 1 1 1 1 1 1 1 1 1 1 1 1 1 1 1 1 1 1 1 1 1 1 1 1 1 1 1 1 1 1 1 1 1 1 1 1 1 1 1 1 1 1 1 1 1 1 1 1 1 1 1 1 1 1 1 1 1 1 1 1 1 1 1 1 1 1 1 1 1 1 1 1 1 1 1 1 1 1 1 1 1 1 1 1 1 1 1 1 1 1 1 1 1 1 1 1 1 1 1 1 1 1 1 1 1 1 1 1 1 1 1 1 1 1 1 1 1 1 1 1 1 1 1 1 1 1 1 1 1 1 1 1 1 1 1 1 1 1 1 1 0 0 0 0 0 0 0 0 0 0 0 0 0 0 0 0 0 0 0 0 0 0 0 0 0 0 0 0 0 0 0 0 0 0 0 0 0 0 0 0 0 0 0 0 0 0 0 0 0 0 0 0 0 0 0

